ITEM: TIMESTEP
0
ITEM: NUMBER OF ENTRIES
3456
ITEM: BOX BOUNDS xy xz yz pp pp pp
0.0000000000000000e+00 1.5605100000000000e+01 0.0000000000000000e+00
0.0000000000000000e+00 1.5605100000000000e+01 0.0000000000000000e+00
0.0000000000000000e+00 1.5605100000000000e+01 0.0000000000000000e+00
ITEM: ENTRIES c_nb[1] c_nb[2] 
1 241 
1 196 
1 262 
1 163 
1 100 
1 82 
1 34 
1 73 
1 55 
1 28 
2 101 
2 83 
2 242 
2 197 
2 263 
2 164 
2 35 
2 74 
2 56 
2 29 
4 235 
4 190 
4 265 
4 166 
4 103 
4 85 
4 28 
4 76 
4 58 
4 31 
5 104 
5 86 
5 236 
5 191 
5 266 
5 167 
5 29 
5 77 
5 59 
5 32 
10 223 
10 205 
10 244 
10 172 
10 82 
10 91 
10 43 
10 55 
10 64 
10 37 
11 83 
11 92 
11 224 
11 206 
11 245 
11 173 
11 44 
11 56 
11 65 
11 38 
13 217 
13 199 
13 247 
13 175 
13 85 
13 94 
13 37 
13 58 
13 67 
13 40 
14 86 
14 95 
14 218 
14 200 
14 248 
14 176 
14 38 
14 59 
14 68 
14 41 
19 232 
19 214 
19 253 
19 181 
19 91 
19 100 
19 52 
19 64 
19 73 
19 46 
20 92 
20 101 
20 233 
20 215 
20 254 
20 182 
20 53 
20 65 
20 74 
20 47 
22 226 
22 208 
22 256 
22 184 
22 94 
22 103 
22 46 
22 67 
22 76 
22 49 
23 95 
23 104 
23 227 
23 209 
23 257 
23 185 
23 47 
23 68 
23 77 
23 50 
28 76 
28 58 
28 289 
28 2 
28 136 
28 101 
28 83 
28 316 
28 5 
28 109 
37 58 
37 67 
37 11 
37 271 
37 145 
37 83 
37 92 
37 14 
37 298 
37 118 
46 67 
46 76 
46 280 
46 20 
46 154 
46 92 
46 101 
46 307 
46 23 
46 127 
55 28 
55 37 
55 89 
55 115 
55 304 
55 2 
55 136 
55 11 
55 271 
55 83 
58 31 
58 40 
58 83 
58 5 
58 109 
58 14 
58 298 
58 139 
58 274 
58 86 
64 37 
64 46 
64 98 
64 124 
64 313 
64 11 
64 145 
64 280 
64 20 
64 92 
67 40 
67 49 
67 92 
67 14 
67 118 
67 307 
67 23 
67 148 
67 283 
67 95 
73 46 
73 28 
73 107 
73 133 
73 322 
73 20 
73 154 
73 289 
73 2 
73 101 
76 49 
76 31 
76 101 
76 23 
76 127 
76 316 
76 5 
76 157 
76 292 
76 104 
82 163 
82 244 
82 4 
82 190 
82 13 
82 217 
82 55 
82 28 
82 37 
82 58 
83 5 
83 14 
83 164 
83 245 
83 191 
83 218 
83 56 
83 29 
83 38 
83 59 
91 172 
91 253 
91 13 
91 199 
91 226 
91 22 
91 64 
91 37 
91 46 
91 67 
92 14 
92 23 
92 173 
92 254 
92 200 
92 227 
92 65 
92 38 
92 47 
92 68 
100 181 
100 262 
100 22 
100 208 
100 235 
100 4 
100 73 
100 46 
100 28 
100 76 
101 23 
101 5 
101 182 
101 263 
101 209 
101 236 
101 74 
101 47 
101 29 
101 77 
109 83 
109 5 
109 298 
109 292 
109 139 
109 274 
109 164 
109 236 
109 191 
109 218 
109 167 
118 92 
118 14 
118 307 
118 274 
118 148 
118 283 
118 173 
118 218 
118 200 
118 227 
118 176 
127 101 
127 23 
127 316 
127 283 
127 157 
127 292 
127 182 
127 227 
127 209 
127 236 
127 185 
136 2 
136 271 
136 83 
136 316 
136 109 
136 298 
136 197 
136 263 
136 164 
136 245 
136 191 
139 5 
139 274 
139 319 
139 112 
139 86 
139 301 
139 191 
139 266 
139 167 
139 248 
139 194 
145 11 
145 280 
145 92 
145 298 
145 118 
145 307 
145 206 
145 245 
145 173 
145 254 
145 200 
148 14 
148 283 
148 301 
148 121 
148 95 
148 310 
148 200 
148 248 
148 176 
148 257 
148 203 
154 20 
154 289 
154 101 
154 307 
154 127 
154 316 
154 215 
154 254 
154 182 
154 263 
154 209 
157 23 
157 292 
157 310 
157 130 
157 104 
157 319 
157 209 
157 257 
157 185 
157 266 
157 212 
163 244 
163 235 
163 190 
163 217 
163 55 
163 28 
163 115 
163 289 
163 136 
163 271 
163 109 
164 245 
164 236 
164 191 
164 218 
164 116 
164 290 
164 137 
164 56 
164 272 
164 29 
164 110 
166 247 
166 238 
166 193 
166 220 
166 58 
166 31 
166 109 
166 292 
166 139 
166 274 
166 112 
167 248 
167 239 
167 194 
167 221 
167 110 
167 59 
167 293 
167 140 
167 275 
167 32 
167 113 
172 253 
172 217 
172 199 
172 226 
172 64 
172 37 
172 124 
172 271 
172 145 
172 280 
172 118 
173 254 
173 218 
173 200 
173 227 
173 125 
173 272 
173 146 
173 65 
173 281 
173 38 
173 119 
175 256 
175 220 
175 202 
175 229 
175 67 
175 40 
175 118 
175 274 
175 148 
175 283 
175 121 
176 257 
176 221 
176 203 
176 230 
176 119 
176 68 
176 275 
176 149 
176 284 
176 41 
176 122 
181 262 
181 226 
181 208 
181 235 
181 73 
181 46 
181 133 
181 280 
181 154 
181 289 
181 127 
182 263 
182 227 
182 209 
182 236 
182 134 
182 281 
182 155 
182 74 
182 290 
182 47 
182 128 
184 265 
184 229 
184 211 
184 238 
184 76 
184 49 
184 127 
184 283 
184 157 
184 292 
184 130 
185 266 
185 230 
185 212 
185 239 
185 128 
185 77 
185 284 
185 158 
185 293 
185 50 
185 131 
190 217 
190 265 
190 166 
190 247 
190 28 
190 58 
190 136 
190 316 
190 109 
190 298 
190 139 
191 218 
191 266 
191 167 
191 248 
191 137 
191 29 
191 317 
191 110 
191 59 
191 299 
191 140 
199 226 
199 247 
199 175 
199 256 
199 37 
199 67 
199 145 
199 298 
199 118 
199 307 
199 148 
200 227 
200 248 
200 176 
200 257 
200 146 
200 38 
200 299 
200 119 
200 68 
200 308 
200 149 
208 235 
208 256 
208 184 
208 265 
208 46 
208 76 
208 154 
208 307 
208 127 
208 316 
208 157 
209 236 
209 257 
209 185 
209 266 
209 155 
209 47 
209 308 
209 128 
209 77 
209 317 
209 158 
217 199 
217 166 
217 247 
217 175 
217 37 
217 58 
217 271 
217 109 
217 298 
217 118 
217 274 
218 200 
218 167 
218 248 
218 176 
218 272 
218 38 
218 110 
218 59 
218 299 
218 119 
218 275 
226 208 
226 175 
226 256 
226 184 
226 46 
226 67 
226 280 
226 118 
226 307 
226 127 
226 283 
227 209 
227 176 
227 257 
227 185 
227 281 
227 47 
227 119 
227 68 
227 308 
227 128 
227 284 
235 190 
235 184 
235 265 
235 166 
235 28 
235 76 
235 289 
235 127 
235 316 
235 109 
235 292 
236 191 
236 185 
236 266 
236 167 
236 290 
236 29 
236 128 
236 77 
236 317 
236 110 
236 293 
244 172 
244 190 
244 217 
244 199 
244 55 
244 37 
244 304 
244 136 
244 271 
244 145 
244 298 
245 173 
245 191 
245 218 
245 200 
245 305 
245 137 
245 56 
245 272 
245 146 
245 38 
245 299 
247 175 
247 193 
247 220 
247 202 
247 58 
247 40 
247 298 
247 139 
247 274 
247 148 
247 301 
248 176 
248 194 
248 221 
248 203 
248 59 
248 299 
248 140 
248 275 
248 149 
248 41 
248 302 
253 181 
253 199 
253 226 
253 208 
253 64 
253 46 
253 313 
253 145 
253 280 
253 154 
253 307 
254 182 
254 200 
254 227 
254 209 
254 314 
254 146 
254 65 
254 281 
254 155 
254 47 
254 308 
256 184 
256 202 
256 229 
256 211 
256 67 
256 49 
256 307 
256 148 
256 283 
256 157 
256 310 
257 185 
257 203 
257 230 
257 212 
257 68 
257 308 
257 149 
257 284 
257 158 
257 311 
257 50 
262 163 
262 208 
262 235 
262 190 
262 73 
262 28 
262 322 
262 154 
262 289 
262 136 
262 316 
263 164 
263 209 
263 236 
263 191 
263 323 
263 155 
263 74 
263 290 
263 137 
263 29 
263 317 
265 166 
265 211 
265 238 
265 193 
265 76 
265 31 
265 316 
265 157 
265 292 
265 139 
265 319 
266 167 
266 212 
266 239 
266 194 
266 77 
266 317 
266 158 
266 293 
266 140 
266 320 
266 32 
271 11 
271 145 
271 83 
271 109 
271 298 
271 118 
271 224 
271 164 
271 245 
271 173 
271 218 
274 14 
274 148 
274 112 
274 86 
274 301 
274 121 
274 218 
274 167 
274 248 
274 176 
274 221 
280 20 
280 154 
280 92 
280 118 
280 307 
280 127 
280 233 
280 173 
280 254 
280 182 
280 227 
283 23 
283 157 
283 121 
283 95 
283 310 
283 130 
283 227 
283 176 
283 257 
283 185 
283 230 
289 2 
289 136 
289 101 
289 127 
289 316 
289 109 
289 242 
289 182 
289 263 
289 164 
289 236 
292 5 
292 139 
292 130 
292 104 
292 319 
292 112 
292 236 
292 185 
292 266 
292 167 
292 239 
298 83 
298 14 
298 118 
298 139 
298 274 
298 148 
298 245 
298 191 
298 218 
298 200 
298 248 
307 92 
307 23 
307 127 
307 148 
307 283 
307 157 
307 254 
307 200 
307 227 
307 209 
307 257 
316 101 
316 5 
316 109 
316 157 
316 292 
316 139 
316 263 
316 209 
316 236 
316 191 
316 266 
3 243 
3 198 
3 264 
3 165 
3 102 
3 84 
3 36 
3 75 
3 57 
3 30 
6 237 
6 192 
6 267 
6 168 
6 105 
6 87 
6 30 
6 78 
6 60 
6 33 
12 225 
12 207 
12 246 
12 174 
12 84 
12 93 
12 45 
12 57 
12 66 
12 39 
15 219 
15 201 
15 249 
15 177 
15 87 
15 96 
15 39 
15 60 
15 69 
15 42 
21 234 
21 216 
21 255 
21 183 
21 93 
21 102 
21 54 
21 66 
21 75 
21 48 
24 228 
24 210 
24 258 
24 186 
24 96 
24 105 
24 48 
24 69 
24 78 
24 51 
29 290 
29 137 
29 77 
29 317 
29 110 
29 59 
29 3 
29 102 
29 84 
29 6 
30 78 
30 60 
30 291 
30 138 
30 318 
30 111 
30 1 
30 100 
30 82 
30 4 
38 272 
38 146 
38 59 
38 299 
38 119 
38 68 
38 12 
38 84 
38 93 
38 15 
39 60 
39 69 
39 273 
39 147 
39 300 
39 120 
39 10 
39 82 
39 91 
39 13 
47 281 
47 155 
47 68 
47 308 
47 128 
47 77 
47 21 
47 93 
47 102 
47 24 
48 69 
48 78 
48 282 
48 156 
48 309 
48 129 
48 19 
48 91 
48 100 
48 22 
56 116 
56 305 
56 137 
56 272 
56 29 
56 38 
56 90 
56 3 
56 12 
56 84 
57 30 
57 39 
57 117 
57 306 
57 138 
57 273 
57 88 
57 1 
57 10 
57 82 
59 110 
59 299 
59 140 
59 275 
59 32 
59 41 
59 84 
59 6 
59 15 
59 87 
60 33 
60 42 
60 111 
60 300 
60 141 
60 276 
60 82 
60 4 
60 13 
60 85 
65 125 
65 314 
65 146 
65 281 
65 38 
65 47 
65 99 
65 12 
65 21 
65 93 
66 39 
66 48 
66 126 
66 315 
66 147 
66 282 
66 97 
66 10 
66 19 
66 91 
68 119 
68 308 
68 149 
68 284 
68 41 
68 50 
68 93 
68 15 
68 24 
68 96 
69 42 
69 51 
69 120 
69 309 
69 150 
69 285 
69 91 
69 13 
69 22 
69 94 
74 134 
74 323 
74 155 
74 290 
74 47 
74 29 
74 108 
74 21 
74 3 
74 102 
75 48 
75 30 
75 135 
75 324 
75 156 
75 291 
75 106 
75 19 
75 1 
75 100 
77 128 
77 317 
77 158 
77 293 
77 50 
77 32 
77 102 
77 24 
77 6 
77 105 
78 51 
78 33 
78 129 
78 318 
78 159 
78 294 
78 100 
78 22 
78 4 
78 103 
84 165 
84 246 
84 6 
84 192 
84 15 
84 219 
84 57 
84 30 
84 39 
84 60 
93 174 
93 255 
93 15 
93 201 
93 228 
93 24 
93 66 
93 39 
93 48 
93 69 
102 183 
102 264 
102 24 
102 210 
102 237 
102 6 
102 75 
102 48 
102 30 
102 78 
110 299 
110 293 
110 140 
110 275 
110 165 
110 84 
110 237 
110 6 
110 192 
110 219 
110 168 
111 300 
111 294 
111 141 
111 276 
111 163 
111 82 
111 235 
111 4 
111 190 
111 217 
111 166 
119 308 
119 275 
119 149 
119 284 
119 174 
119 93 
119 15 
119 219 
119 201 
119 228 
119 177 
120 309 
120 276 
120 150 
120 285 
120 172 
120 91 
120 13 
120 217 
120 199 
120 226 
120 175 
128 317 
128 284 
128 158 
128 293 
128 183 
128 102 
128 228 
128 24 
128 210 
128 237 
128 186 
129 318 
129 285 
129 159 
129 294 
129 181 
129 100 
129 226 
129 22 
129 208 
129 235 
129 184 
137 272 
137 317 
137 110 
137 299 
137 198 
137 264 
137 3 
137 165 
137 246 
137 84 
137 192 
138 273 
138 318 
138 111 
138 300 
138 196 
138 262 
138 1 
138 163 
138 244 
138 82 
138 190 
140 275 
140 320 
140 113 
140 302 
140 6 
140 192 
140 267 
140 168 
140 249 
140 195 
140 87 
141 276 
141 321 
141 114 
141 303 
141 4 
141 190 
141 265 
141 166 
141 247 
141 193 
141 85 
146 281 
146 299 
146 119 
146 308 
146 207 
146 12 
146 246 
146 174 
146 255 
146 93 
146 201 
147 282 
147 300 
147 120 
147 309 
147 205 
147 10 
147 244 
147 172 
147 253 
147 91 
147 199 
149 284 
149 302 
149 122 
149 311 
149 15 
149 201 
149 249 
149 177 
149 258 
149 204 
149 96 
150 285 
150 303 
150 123 
150 312 
150 13 
150 199 
150 247 
150 175 
150 256 
150 202 
150 94 
155 290 
155 308 
155 128 
155 317 
155 216 
155 255 
155 21 
155 183 
155 264 
155 102 
155 210 
156 291 
156 309 
156 129 
156 318 
156 214 
156 253 
156 19 
156 181 
156 262 
156 100 
156 208 
158 293 
158 311 
158 131 
158 320 
158 24 
158 210 
158 258 
158 186 
158 267 
158 213 
158 105 
159 294 
159 312 
159 132 
159 321 
159 22 
159 208 
159 256 
159 184 
159 265 
159 211 
159 103 
165 246 
165 237 
165 192 
165 219 
165 57 
165 30 
165 117 
165 291 
165 138 
165 273 
165 111 
168 249 
168 240 
168 195 
168 222 
168 60 
168 33 
168 111 
168 294 
168 141 
168 276 
168 114 
174 255 
174 219 
174 201 
174 228 
174 66 
174 39 
174 126 
174 273 
174 147 
174 282 
174 120 
177 258 
177 222 
177 204 
177 231 
177 69 
177 42 
177 120 
177 276 
177 150 
177 285 
177 123 
183 264 
183 228 
183 210 
183 237 
183 75 
183 48 
183 135 
183 282 
183 156 
183 291 
183 129 
186 267 
186 231 
186 213 
186 240 
186 78 
186 51 
186 129 
186 285 
186 159 
186 294 
186 132 
192 219 
192 267 
192 168 
192 249 
192 30 
192 60 
192 138 
192 318 
192 111 
192 300 
192 141 
201 228 
201 249 
201 177 
201 258 
201 39 
201 69 
201 147 
201 300 
201 120 
201 309 
201 150 
210 237 
210 258 
210 186 
210 267 
210 48 
210 78 
210 156 
210 309 
210 129 
210 318 
210 159 
219 201 
219 168 
219 249 
219 177 
219 39 
219 60 
219 273 
219 111 
219 300 
219 120 
219 276 
228 210 
228 177 
228 258 
228 186 
228 48 
228 69 
228 282 
228 120 
228 309 
228 129 
228 285 
237 192 
237 186 
237 267 
237 168 
237 30 
237 78 
237 291 
237 129 
237 318 
237 111 
237 294 
246 174 
246 192 
246 219 
246 201 
246 57 
246 39 
246 306 
246 138 
246 273 
246 147 
246 300 
249 177 
249 195 
249 222 
249 204 
249 60 
249 42 
249 300 
249 141 
249 276 
249 150 
249 303 
255 183 
255 201 
255 228 
255 210 
255 66 
255 48 
255 315 
255 147 
255 282 
255 156 
255 309 
258 186 
258 204 
258 231 
258 213 
258 69 
258 51 
258 309 
258 150 
258 285 
258 159 
258 312 
264 165 
264 210 
264 237 
264 192 
264 75 
264 30 
264 324 
264 156 
264 291 
264 138 
264 318 
267 168 
267 213 
267 240 
267 195 
267 78 
267 33 
267 318 
267 159 
267 294 
267 141 
267 321 
272 146 
272 110 
272 299 
272 119 
272 225 
272 165 
272 12 
272 246 
272 174 
272 84 
272 219 
273 147 
273 111 
273 300 
273 120 
273 223 
273 163 
273 10 
273 244 
273 172 
273 82 
273 217 
275 149 
275 113 
275 302 
275 122 
275 15 
275 219 
275 168 
275 249 
275 177 
275 87 
275 222 
276 150 
276 114 
276 303 
276 123 
276 13 
276 217 
276 166 
276 247 
276 175 
276 85 
276 220 
281 155 
281 119 
281 308 
281 128 
281 234 
281 174 
281 255 
281 21 
281 183 
281 93 
281 228 
282 156 
282 120 
282 309 
282 129 
282 232 
282 172 
282 253 
282 19 
282 181 
282 91 
282 226 
284 158 
284 122 
284 311 
284 131 
284 228 
284 24 
284 177 
284 258 
284 186 
284 96 
284 231 
285 159 
285 123 
285 312 
285 132 
285 226 
285 22 
285 175 
285 256 
285 184 
285 94 
285 229 
290 137 
290 128 
290 317 
290 110 
290 243 
290 183 
290 264 
290 3 
290 165 
290 102 
290 237 
291 138 
291 129 
291 318 
291 111 
291 241 
291 181 
291 262 
291 1 
291 163 
291 100 
291 235 
293 140 
293 131 
293 320 
293 113 
293 237 
293 6 
293 186 
293 267 
293 168 
293 105 
293 240 
294 141 
294 132 
294 321 
294 114 
294 235 
294 4 
294 184 
294 265 
294 166 
294 103 
294 238 
299 119 
299 140 
299 275 
299 149 
299 246 
299 84 
299 192 
299 15 
299 219 
299 201 
299 249 
300 120 
300 141 
300 276 
300 150 
300 244 
300 82 
300 190 
300 13 
300 217 
300 199 
300 247 
308 128 
308 149 
308 284 
308 158 
308 255 
308 93 
308 201 
308 228 
308 24 
308 210 
308 258 
309 129 
309 150 
309 285 
309 159 
309 253 
309 91 
309 199 
309 226 
309 22 
309 208 
309 256 
317 110 
317 158 
317 293 
317 140 
317 264 
317 102 
317 210 
317 237 
317 6 
317 192 
317 267 
318 111 
318 159 
318 294 
318 141 
318 262 
318 100 
318 208 
318 235 
318 4 
318 190 
318 265 
7 238 
7 193 
7 268 
7 169 
7 106 
7 88 
7 31 
7 79 
7 61 
7 34 
8 107 
8 89 
8 239 
8 194 
8 269 
8 170 
8 32 
8 80 
8 62 
8 35 
16 220 
16 202 
16 250 
16 178 
16 88 
16 97 
16 40 
16 61 
16 70 
16 43 
17 89 
17 98 
17 221 
17 203 
17 251 
17 179 
17 41 
17 62 
17 71 
17 44 
25 229 
25 211 
25 259 
25 187 
25 97 
25 106 
25 49 
25 70 
25 79 
25 52 
26 98 
26 107 
26 230 
26 212 
26 260 
26 188 
26 50 
26 71 
26 80 
26 53 
31 79 
31 61 
31 5 
31 292 
31 139 
31 104 
31 319 
31 112 
31 86 
31 8 
34 73 
34 55 
34 295 
34 8 
34 142 
34 107 
34 89 
34 322 
34 115 
34 2 
40 61 
40 70 
40 14 
40 274 
40 148 
40 86 
40 301 
40 121 
40 95 
40 17 
43 55 
43 64 
43 17 
43 277 
43 151 
43 89 
43 98 
43 304 
43 124 
43 11 
49 70 
49 79 
49 23 
49 283 
49 157 
49 95 
49 310 
49 130 
49 104 
49 26 
52 64 
52 73 
52 286 
52 26 
52 160 
52 98 
52 107 
52 313 
52 133 
52 20 
61 34 
61 43 
61 112 
61 86 
61 301 
61 8 
61 142 
61 17 
61 277 
61 89 
70 43 
70 52 
70 121 
70 95 
70 310 
70 17 
70 151 
70 286 
70 26 
70 98 
79 52 
79 34 
79 130 
79 104 
79 319 
79 26 
79 160 
79 295 
79 8 
79 107 
85 166 
85 247 
85 193 
85 220 
85 7 
85 16 
85 58 
85 31 
85 40 
85 61 
86 8 
86 17 
86 167 
86 248 
86 194 
86 221 
86 59 
86 32 
86 41 
86 62 
88 169 
88 250 
88 196 
88 223 
88 1 
88 10 
88 61 
88 34 
88 43 
88 55 
89 2 
89 11 
89 170 
89 251 
89 197 
89 224 
89 62 
89 35 
89 44 
89 56 
94 175 
94 256 
94 202 
94 229 
94 16 
94 25 
94 67 
94 40 
94 49 
94 70 
95 17 
95 26 
95 176 
95 257 
95 203 
95 230 
95 68 
95 41 
95 50 
95 71 
97 178 
97 259 
97 205 
97 232 
97 10 
97 19 
97 70 
97 43 
97 52 
97 64 
98 11 
98 20 
98 179 
98 260 
98 206 
98 233 
98 71 
98 44 
98 53 
98 65 
103 184 
103 265 
103 211 
103 238 
103 25 
103 7 
103 76 
103 49 
103 31 
103 79 
104 26 
104 8 
104 185 
104 266 
104 212 
104 239 
104 77 
104 50 
104 32 
104 80 
106 187 
106 268 
106 214 
106 241 
106 19 
106 1 
106 79 
106 52 
106 34 
106 73 
107 20 
107 2 
107 188 
107 269 
107 215 
107 242 
107 80 
107 53 
107 35 
107 74 
112 86 
112 301 
112 295 
112 8 
112 142 
112 277 
112 167 
112 239 
112 194 
112 221 
112 170 
115 89 
115 304 
115 289 
115 2 
115 136 
115 271 
115 170 
115 242 
115 197 
115 224 
115 164 
121 95 
121 310 
121 17 
121 277 
121 151 
121 286 
121 176 
121 221 
121 203 
121 230 
121 179 
124 98 
124 313 
124 11 
124 271 
124 145 
124 280 
124 179 
124 224 
124 206 
124 233 
124 173 
130 104 
130 319 
130 286 
130 26 
130 160 
130 295 
130 185 
130 230 
130 212 
130 239 
130 188 
133 107 
133 322 
133 280 
133 20 
133 154 
133 289 
133 188 
133 233 
133 215 
133 242 
133 182 
142 8 
142 277 
142 89 
142 322 
142 115 
142 304 
142 194 
142 269 
142 170 
142 251 
142 197 
151 17 
151 286 
151 98 
151 304 
151 124 
151 313 
151 203 
151 251 
151 179 
151 260 
151 206 
160 26 
160 295 
160 107 
160 313 
160 133 
160 322 
160 212 
160 260 
160 188 
160 269 
160 215 
169 250 
169 241 
169 196 
169 223 
169 61 
169 34 
169 112 
169 295 
169 142 
169 277 
169 115 
170 251 
170 242 
170 197 
170 224 
170 113 
170 296 
170 143 
170 62 
170 278 
170 35 
170 116 
178 259 
178 223 
178 205 
178 232 
178 70 
178 43 
178 121 
178 277 
178 151 
178 286 
178 124 
179 260 
179 224 
179 206 
179 233 
179 122 
179 278 
179 152 
179 71 
179 287 
179 44 
179 125 
187 268 
187 232 
187 214 
187 241 
187 79 
187 52 
187 130 
187 286 
187 160 
187 295 
187 133 
188 269 
188 233 
188 215 
188 242 
188 131 
188 287 
188 161 
188 80 
188 296 
188 53 
188 134 
193 220 
193 268 
193 169 
193 250 
193 31 
193 61 
193 139 
193 319 
193 112 
193 301 
193 142 
194 221 
194 269 
194 170 
194 251 
194 140 
194 320 
194 32 
194 113 
194 302 
194 143 
194 62 
196 223 
196 262 
196 163 
196 244 
196 34 
196 55 
196 142 
196 322 
196 115 
196 304 
196 136 
197 224 
197 263 
197 164 
197 245 
197 143 
197 35 
197 323 
197 116 
197 305 
197 137 
197 56 
202 229 
202 250 
202 178 
202 259 
202 40 
202 70 
202 148 
202 301 
202 121 
202 310 
202 151 
203 230 
203 251 
203 179 
203 260 
203 149 
203 41 
203 302 
203 122 
203 311 
203 152 
203 71 
205 232 
205 244 
205 172 
205 253 
205 43 
205 64 
205 151 
205 304 
205 124 
205 313 
205 145 
206 233 
206 245 
206 173 
206 254 
206 152 
206 44 
206 305 
206 125 
206 314 
206 146 
206 65 
211 238 
211 259 
211 187 
211 268 
211 49 
211 79 
211 157 
211 310 
211 130 
211 319 
211 160 
212 239 
212 260 
212 188 
212 269 
212 158 
212 311 
212 50 
212 131 
212 320 
212 161 
212 80 
214 241 
214 253 
214 181 
214 262 
214 52 
214 73 
214 160 
214 313 
214 133 
214 322 
214 154 
215 242 
215 254 
215 182 
215 263 
215 161 
215 53 
215 314 
215 134 
215 323 
215 155 
215 74 
220 202 
220 169 
220 250 
220 178 
220 40 
220 61 
220 274 
220 112 
220 301 
220 121 
220 277 
221 203 
221 170 
221 251 
221 179 
221 275 
221 113 
221 41 
221 302 
221 122 
221 62 
221 278 
223 205 
223 163 
223 244 
223 172 
223 43 
223 55 
223 277 
223 115 
223 304 
223 124 
223 271 
224 206 
224 164 
224 245 
224 173 
224 278 
224 44 
224 116 
224 305 
224 125 
224 56 
224 272 
229 211 
229 178 
229 259 
229 187 
229 49 
229 70 
229 283 
229 121 
229 310 
229 130 
229 286 
230 212 
230 179 
230 260 
230 188 
230 284 
230 122 
230 311 
230 50 
230 131 
230 71 
230 287 
232 214 
232 172 
232 253 
232 181 
232 52 
232 64 
232 286 
232 124 
232 313 
232 133 
232 280 
233 215 
233 173 
233 254 
233 182 
233 287 
233 53 
233 125 
233 314 
233 134 
233 65 
233 281 
238 193 
238 187 
238 268 
238 169 
238 31 
238 79 
238 292 
238 130 
238 319 
238 112 
238 295 
239 194 
239 188 
239 269 
239 170 
239 293 
239 131 
239 320 
239 32 
239 113 
239 80 
239 296 
241 196 
241 181 
241 262 
241 163 
241 34 
241 73 
241 295 
241 133 
241 322 
241 115 
241 289 
242 197 
242 182 
242 263 
242 164 
242 296 
242 35 
242 134 
242 323 
242 116 
242 74 
242 290 
250 178 
250 196 
250 223 
250 205 
250 61 
250 43 
250 301 
250 142 
250 277 
250 151 
250 304 
251 179 
251 197 
251 224 
251 206 
251 302 
251 143 
251 62 
251 278 
251 152 
251 44 
251 305 
259 187 
259 205 
259 232 
259 214 
259 70 
259 52 
259 310 
259 151 
259 286 
259 160 
259 313 
260 188 
260 206 
260 233 
260 215 
260 311 
260 152 
260 71 
260 287 
260 161 
260 53 
260 314 
268 169 
268 214 
268 241 
268 196 
268 79 
268 34 
268 319 
268 160 
268 295 
268 142 
268 322 
269 170 
269 215 
269 242 
269 197 
269 320 
269 161 
269 80 
269 296 
269 143 
269 35 
269 323 
277 17 
277 151 
277 89 
277 115 
277 304 
277 124 
277 221 
277 170 
277 251 
277 179 
277 224 
286 26 
286 160 
286 98 
286 124 
286 313 
286 133 
286 230 
286 179 
286 260 
286 188 
286 233 
295 8 
295 142 
295 107 
295 133 
295 322 
295 115 
295 239 
295 188 
295 269 
295 170 
295 242 
301 86 
301 121 
301 142 
301 17 
301 277 
301 151 
301 248 
301 194 
301 221 
301 203 
301 251 
304 89 
304 124 
304 136 
304 11 
304 271 
304 145 
304 251 
304 197 
304 224 
304 206 
304 245 
310 95 
310 130 
310 151 
310 286 
310 26 
310 160 
310 257 
310 203 
310 230 
310 212 
310 260 
313 98 
313 133 
313 145 
313 280 
313 20 
313 154 
313 260 
313 206 
313 233 
313 215 
313 254 
319 104 
319 112 
319 160 
319 295 
319 8 
319 142 
319 266 
319 212 
319 239 
319 194 
319 269 
322 107 
322 115 
322 154 
322 289 
322 2 
322 136 
322 269 
322 215 
322 242 
322 197 
322 263 
9 240 
9 195 
9 270 
9 171 
9 108 
9 90 
9 33 
9 81 
9 63 
9 36 
18 222 
18 204 
18 252 
18 180 
18 90 
18 99 
18 42 
18 63 
18 72 
18 45 
27 231 
27 213 
27 261 
27 189 
27 99 
27 108 
27 51 
27 72 
27 81 
27 54 
32 293 
32 140 
32 320 
32 113 
32 80 
32 62 
32 6 
32 105 
32 87 
32 9 
33 81 
33 63 
33 294 
33 141 
33 321 
33 114 
33 4 
33 103 
33 85 
33 7 
35 296 
35 143 
35 323 
35 116 
35 74 
35 56 
35 9 
35 108 
35 90 
35 3 
36 75 
36 57 
36 297 
36 144 
36 324 
36 117 
36 7 
36 106 
36 88 
36 1 
41 275 
41 149 
41 302 
41 122 
41 62 
41 71 
41 15 
41 87 
41 96 
41 18 
42 63 
42 72 
42 276 
42 150 
42 303 
42 123 
42 13 
42 85 
42 94 
42 16 
44 278 
44 152 
44 305 
44 125 
44 56 
44 65 
44 18 
44 90 
44 99 
44 12 
45 57 
45 66 
45 279 
45 153 
45 306 
45 126 
45 16 
45 88 
45 97 
45 10 
50 284 
50 158 
50 311 
50 131 
50 71 
50 80 
50 24 
50 96 
50 105 
50 27 
51 72 
51 81 
51 285 
51 159 
51 312 
51 132 
51 22 
51 94 
51 103 
51 25 
53 287 
53 161 
53 314 
53 134 
53 65 
53 74 
53 27 
53 99 
53 108 
53 21 
54 66 
54 75 
54 288 
54 162 
54 315 
54 135 
54 25 
54 97 
54 106 
54 19 
62 113 
62 302 
62 143 
62 278 
62 35 
62 44 
62 87 
62 9 
62 18 
62 90 
63 36 
63 45 
63 114 
63 303 
63 144 
63 279 
63 85 
63 7 
63 16 
63 88 
71 122 
71 311 
71 152 
71 287 
71 44 
71 53 
71 96 
71 18 
71 27 
71 99 
72 45 
72 54 
72 123 
72 312 
72 153 
72 288 
72 94 
72 16 
72 25 
72 97 
80 131 
80 320 
80 161 
80 296 
80 53 
80 35 
80 105 
80 27 
80 9 
80 108 
81 54 
81 36 
81 132 
81 321 
81 162 
81 297 
81 103 
81 25 
81 7 
81 106 
87 168 
87 249 
87 195 
87 222 
87 9 
87 18 
87 60 
87 33 
87 42 
87 63 
90 171 
90 252 
90 198 
90 225 
90 3 
90 12 
90 63 
90 36 
90 45 
90 57 
96 177 
96 258 
96 204 
96 231 
96 18 
96 27 
96 69 
96 42 
96 51 
96 72 
99 180 
99 261 
99 207 
99 234 
99 12 
99 21 
99 72 
99 45 
99 54 
99 66 
105 186 
105 267 
105 213 
105 240 
105 27 
105 9 
105 78 
105 51 
105 33 
105 81 
108 189 
108 270 
108 216 
108 243 
108 21 
108 3 
108 81 
108 54 
108 36 
108 75 
113 302 
113 296 
113 143 
113 278 
113 168 
113 240 
113 195 
113 87 
113 222 
113 9 
113 171 
114 303 
114 297 
114 144 
114 279 
114 166 
114 238 
114 193 
114 85 
114 220 
114 7 
114 169 
116 305 
116 290 
116 137 
116 272 
116 171 
116 90 
116 243 
116 198 
116 225 
116 3 
116 165 
117 306 
117 291 
117 138 
117 273 
117 169 
117 88 
117 241 
117 196 
117 223 
117 1 
117 163 
122 311 
122 278 
122 152 
122 287 
122 177 
122 222 
122 204 
122 96 
122 231 
122 18 
122 180 
123 312 
123 279 
123 153 
123 288 
123 175 
123 220 
123 202 
123 94 
123 229 
123 16 
123 178 
125 314 
125 272 
125 146 
125 281 
125 180 
125 99 
125 225 
125 207 
125 234 
125 12 
125 174 
126 315 
126 273 
126 147 
126 282 
126 178 
126 97 
126 223 
126 205 
126 232 
126 10 
126 172 
131 320 
131 287 
131 161 
131 296 
131 186 
131 231 
131 213 
131 105 
131 240 
131 27 
131 189 
132 321 
132 288 
132 162 
132 297 
132 184 
132 229 
132 211 
132 103 
132 238 
132 25 
132 187 
134 323 
134 281 
134 155 
134 290 
134 189 
134 108 
134 234 
134 216 
134 243 
134 21 
134 183 
135 324 
135 282 
135 156 
135 291 
135 187 
135 106 
135 232 
135 214 
135 241 
135 19 
135 181 
143 278 
143 323 
143 116 
143 305 
143 195 
143 270 
143 9 
143 171 
143 252 
143 90 
143 198 
144 279 
144 324 
144 117 
144 306 
144 193 
144 268 
144 7 
144 169 
144 250 
144 88 
144 196 
152 287 
152 305 
152 125 
152 314 
152 204 
152 18 
152 252 
152 180 
152 261 
152 99 
152 207 
153 288 
153 306 
153 126 
153 315 
153 202 
153 16 
153 250 
153 178 
153 259 
153 97 
153 205 
161 296 
161 314 
161 134 
161 323 
161 213 
161 261 
161 27 
161 189 
161 270 
161 108 
161 216 
162 297 
162 315 
162 135 
162 324 
162 211 
162 259 
162 25 
162 187 
162 268 
162 106 
162 214 
171 252 
171 243 
171 198 
171 225 
171 63 
171 36 
171 114 
171 297 
171 144 
171 279 
171 117 
180 261 
180 225 
180 207 
180 234 
180 72 
180 45 
180 123 
180 279 
180 153 
180 288 
180 126 
189 270 
189 234 
189 216 
189 243 
189 81 
189 54 
189 132 
189 288 
189 162 
189 297 
189 135 
195 222 
195 270 
195 171 
195 252 
195 33 
195 63 
195 141 
195 321 
195 114 
195 303 
195 144 
198 225 
198 264 
198 165 
198 246 
198 36 
198 57 
198 144 
198 324 
198 117 
198 306 
198 138 
204 231 
204 252 
204 180 
204 261 
204 42 
204 72 
204 150 
204 303 
204 123 
204 312 
204 153 
207 234 
207 246 
207 174 
207 255 
207 45 
207 66 
207 153 
207 306 
207 126 
207 315 
207 147 
213 240 
213 261 
213 189 
213 270 
213 51 
213 81 
213 159 
213 312 
213 132 
213 321 
213 162 
216 243 
216 255 
216 183 
216 264 
216 54 
216 75 
216 162 
216 315 
216 135 
216 324 
216 156 
222 204 
222 171 
222 252 
222 180 
222 42 
222 63 
222 276 
222 114 
222 303 
222 123 
222 279 
225 207 
225 165 
225 246 
225 174 
225 45 
225 57 
225 279 
225 117 
225 306 
225 126 
225 273 
231 213 
231 180 
231 261 
231 189 
231 51 
231 72 
231 285 
231 123 
231 312 
231 132 
231 288 
234 216 
234 174 
234 255 
234 183 
234 54 
234 66 
234 288 
234 126 
234 315 
234 135 
234 282 
240 195 
240 189 
240 270 
240 171 
240 33 
240 81 
240 294 
240 132 
240 321 
240 114 
240 297 
243 198 
243 183 
243 264 
243 165 
243 36 
243 75 
243 297 
243 135 
243 324 
243 117 
243 291 
252 180 
252 198 
252 225 
252 207 
252 63 
252 45 
252 303 
252 144 
252 279 
252 153 
252 306 
261 189 
261 207 
261 234 
261 216 
261 72 
261 54 
261 312 
261 153 
261 288 
261 162 
261 315 
270 171 
270 216 
270 243 
270 198 
270 81 
270 36 
270 321 
270 162 
270 297 
270 144 
270 324 
278 152 
278 116 
278 305 
278 125 
278 222 
278 171 
278 18 
278 252 
278 180 
278 90 
278 225 
279 153 
279 117 
279 306 
279 126 
279 220 
279 169 
279 16 
279 250 
279 178 
279 88 
279 223 
287 161 
287 125 
287 314 
287 134 
287 231 
287 180 
287 261 
287 27 
287 189 
287 99 
287 234 
288 162 
288 126 
288 315 
288 135 
288 229 
288 178 
288 259 
288 25 
288 187 
288 97 
288 232 
296 143 
296 134 
296 323 
296 116 
296 240 
296 189 
296 270 
296 9 
296 171 
296 108 
296 243 
297 144 
297 135 
297 324 
297 117 
297 238 
297 187 
297 268 
297 7 
297 169 
297 106 
297 241 
302 122 
302 143 
302 278 
302 152 
302 249 
302 195 
302 87 
302 222 
302 204 
302 18 
302 252 
303 123 
303 144 
303 279 
303 153 
303 247 
303 193 
303 85 
303 220 
303 202 
303 16 
303 250 
305 125 
305 137 
305 272 
305 146 
305 252 
305 90 
305 198 
305 225 
305 207 
305 12 
305 246 
306 126 
306 138 
306 273 
306 147 
306 250 
306 88 
306 196 
306 223 
306 205 
306 10 
306 244 
311 131 
311 152 
311 287 
311 161 
311 258 
311 204 
311 96 
311 231 
311 213 
311 261 
311 27 
312 132 
312 153 
312 288 
312 162 
312 256 
312 202 
312 94 
312 229 
312 211 
312 259 
312 25 
314 134 
314 146 
314 281 
314 155 
314 261 
314 99 
314 207 
314 234 
314 216 
314 255 
314 21 
315 135 
315 147 
315 282 
315 156 
315 259 
315 97 
315 205 
315 232 
315 214 
315 253 
315 19 
320 113 
320 161 
320 296 
320 143 
320 267 
320 213 
320 105 
320 240 
320 195 
320 270 
320 9 
321 114 
321 162 
321 297 
321 144 
321 265 
321 211 
321 103 
321 238 
321 193 
321 268 
321 7 
323 116 
323 155 
323 290 
323 137 
323 270 
323 108 
323 216 
323 243 
323 198 
323 264 
323 3 
324 117 
324 156 
324 291 
324 138 
324 268 
324 106 
324 214 
324 241 
324 196 
324 262 
324 1 
