ITEM: TIMESTEP
0
ITEM: NUMBER OF ENTRIES
6912
ITEM: BOX BOUNDS xy xz yz pp pp pp
0.0000000000000000e+00 1.5605100000000000e+01 0.0000000000000000e+00
0.0000000000000000e+00 1.5605100000000000e+01 0.0000000000000000e+00
0.0000000000000000e+00 1.5605100000000000e+01 0.0000000000000000e+00
ITEM: ENTRIES c_nb[1] c_nb[2] 
1 268 
1 169 
1 214 
1 241 
1 196 
1 223 
1 181 
1 262 
1 163 
1 244 
1 100 
1 235 
1 190 
1 82 
1 322 
1 34 
1 115 
1 73 
1 289 
1 136 
1 55 
1 28 
2 269 
2 170 
2 215 
2 242 
2 197 
2 224 
2 182 
2 263 
2 164 
2 245 
2 101 
2 236 
2 191 
2 83 
2 323 
2 35 
2 116 
2 74 
2 290 
2 137 
2 56 
2 29 
4 262 
4 163 
4 208 
4 235 
4 190 
4 217 
4 184 
4 265 
4 166 
4 247 
4 103 
4 238 
4 193 
4 85 
4 316 
4 28 
4 109 
4 76 
4 292 
4 139 
4 58 
4 31 
5 263 
5 164 
5 209 
5 236 
5 191 
5 218 
5 185 
5 266 
5 167 
5 248 
5 104 
5 239 
5 194 
5 86 
5 317 
5 29 
5 110 
5 77 
5 293 
5 140 
5 59 
5 32 
10 250 
10 178 
10 196 
10 223 
10 205 
10 232 
10 163 
10 244 
10 172 
10 253 
10 82 
10 217 
10 199 
10 91 
10 304 
10 43 
10 124 
10 55 
10 271 
10 145 
10 64 
10 37 
11 251 
11 179 
11 197 
11 224 
11 206 
11 233 
11 164 
11 245 
11 173 
11 254 
11 83 
11 218 
11 200 
11 92 
11 305 
11 44 
11 125 
11 56 
11 272 
11 146 
11 65 
11 38 
13 244 
13 172 
13 190 
13 217 
13 199 
13 226 
13 166 
13 247 
13 175 
13 256 
13 85 
13 220 
13 202 
13 94 
13 298 
13 37 
13 118 
13 58 
13 274 
13 148 
13 67 
13 40 
14 245 
14 173 
14 191 
14 218 
14 200 
14 227 
14 167 
14 248 
14 176 
14 257 
14 86 
14 221 
14 203 
14 95 
14 299 
14 38 
14 119 
14 59 
14 275 
14 149 
14 68 
14 41 
19 259 
19 187 
19 205 
19 232 
19 214 
19 241 
19 172 
19 253 
19 181 
19 262 
19 91 
19 226 
19 208 
19 100 
19 313 
19 52 
19 133 
19 64 
19 280 
19 154 
19 73 
19 46 
20 260 
20 188 
20 206 
20 233 
20 215 
20 242 
20 173 
20 254 
20 182 
20 263 
20 92 
20 227 
20 209 
20 101 
20 314 
20 53 
20 134 
20 65 
20 281 
20 155 
20 74 
20 47 
22 253 
22 181 
22 199 
22 226 
22 208 
22 235 
22 175 
22 256 
22 184 
22 265 
22 94 
22 229 
22 211 
22 103 
22 307 
22 46 
22 127 
22 67 
22 283 
22 157 
22 76 
22 49 
23 254 
23 182 
23 200 
23 227 
23 209 
23 236 
23 176 
23 257 
23 185 
23 266 
23 95 
23 230 
23 212 
23 104 
23 308 
23 47 
23 128 
23 68 
23 284 
23 158 
23 77 
23 50 
28 322 
28 115 
28 154 
28 289 
28 136 
28 271 
28 127 
28 316 
28 109 
28 298 
28 76 
28 292 
28 139 
28 58 
28 263 
28 2 
28 164 
28 101 
28 236 
28 191 
28 83 
28 5 
37 304 
37 124 
37 136 
37 271 
37 145 
37 280 
37 109 
37 298 
37 118 
37 307 
37 58 
37 274 
37 148 
37 67 
37 245 
37 11 
37 173 
37 83 
37 218 
37 200 
37 92 
37 14 
46 313 
46 133 
46 145 
46 280 
46 154 
46 289 
46 118 
46 307 
46 127 
46 316 
46 67 
46 283 
46 157 
46 76 
46 254 
46 20 
46 182 
46 92 
46 227 
46 209 
46 101 
46 23 
55 142 
55 277 
55 322 
55 115 
55 304 
55 124 
55 289 
55 136 
55 271 
55 145 
55 28 
55 109 
55 298 
55 37 
55 197 
55 89 
55 224 
55 2 
55 164 
55 245 
55 11 
55 83 
58 136 
58 271 
58 316 
58 109 
58 298 
58 118 
58 292 
58 139 
58 274 
58 148 
58 31 
58 112 
58 301 
58 40 
58 191 
58 83 
58 218 
58 5 
58 167 
58 248 
58 14 
58 86 
64 151 
64 286 
64 304 
64 124 
64 313 
64 133 
64 271 
64 145 
64 280 
64 154 
64 37 
64 118 
64 307 
64 46 
64 206 
64 98 
64 233 
64 11 
64 173 
64 254 
64 20 
64 92 
67 145 
67 280 
67 298 
67 118 
67 307 
67 127 
67 274 
67 148 
67 283 
67 157 
67 40 
67 121 
67 310 
67 49 
67 200 
67 92 
67 227 
67 14 
67 176 
67 257 
67 23 
67 95 
73 160 
73 295 
73 313 
73 133 
73 322 
73 115 
73 280 
73 154 
73 289 
73 136 
73 46 
73 127 
73 316 
73 28 
73 215 
73 107 
73 242 
73 20 
73 182 
73 263 
73 2 
73 101 
76 154 
76 289 
76 307 
76 127 
76 316 
76 109 
76 283 
76 157 
76 292 
76 139 
76 49 
76 130 
76 319 
76 31 
76 209 
76 101 
76 236 
76 23 
76 185 
76 266 
76 5 
76 104 
82 196 
82 223 
82 262 
82 163 
82 244 
82 172 
82 235 
82 190 
82 217 
82 199 
82 4 
82 166 
82 247 
82 13 
82 136 
82 55 
82 271 
82 28 
82 109 
82 298 
82 37 
82 58 
83 197 
83 224 
83 263 
83 164 
83 245 
83 173 
83 236 
83 191 
83 218 
83 200 
83 5 
83 167 
83 248 
83 14 
83 137 
83 56 
83 272 
83 29 
83 110 
83 299 
83 38 
83 59 
91 205 
91 232 
91 244 
91 172 
91 253 
91 181 
91 217 
91 199 
91 226 
91 208 
91 13 
91 175 
91 256 
91 22 
91 145 
91 64 
91 280 
91 37 
91 118 
91 307 
91 46 
91 67 
92 206 
92 233 
92 245 
92 173 
92 254 
92 182 
92 218 
92 200 
92 227 
92 209 
92 14 
92 176 
92 257 
92 23 
92 146 
92 65 
92 281 
92 38 
92 119 
92 308 
92 47 
92 68 
100 214 
100 241 
100 253 
100 181 
100 262 
100 163 
100 226 
100 208 
100 235 
100 190 
100 22 
100 184 
100 265 
100 4 
100 154 
100 73 
100 289 
100 46 
100 127 
100 316 
100 28 
100 76 
101 215 
101 242 
101 254 
101 182 
101 263 
101 164 
101 227 
101 209 
101 236 
101 191 
101 23 
101 185 
101 266 
101 5 
101 155 
101 74 
101 290 
101 47 
101 128 
101 317 
101 29 
101 77 
109 298 
109 292 
109 139 
109 274 
109 263 
109 2 
109 164 
109 245 
109 101 
109 236 
109 191 
109 83 
109 218 
109 266 
109 5 
109 167 
109 248 
109 14 
109 86 
109 29 
109 59 
118 307 
118 274 
118 148 
118 283 
118 245 
118 11 
118 173 
118 254 
118 83 
118 218 
118 200 
118 92 
118 227 
118 248 
118 14 
118 176 
118 257 
118 23 
118 95 
118 38 
118 68 
127 316 
127 283 
127 157 
127 292 
127 254 
127 20 
127 182 
127 263 
127 92 
127 227 
127 209 
127 101 
127 236 
127 257 
127 23 
127 185 
127 266 
127 5 
127 104 
127 47 
127 77 
136 271 
136 316 
136 109 
136 298 
136 242 
136 197 
136 89 
136 224 
136 263 
136 2 
136 164 
136 245 
136 11 
136 101 
136 236 
136 191 
136 83 
136 218 
136 5 
136 56 
136 29 
139 274 
139 319 
139 112 
139 301 
139 236 
139 191 
139 83 
139 218 
139 266 
139 5 
139 167 
139 248 
139 14 
139 104 
139 239 
139 194 
139 86 
139 221 
139 8 
139 59 
139 32 
145 280 
145 298 
145 118 
145 307 
145 224 
145 206 
145 98 
145 233 
145 245 
145 11 
145 173 
145 254 
145 20 
145 83 
145 218 
145 200 
145 92 
145 227 
145 14 
145 65 
145 38 
148 283 
148 301 
148 121 
148 310 
148 218 
148 200 
148 92 
148 227 
148 248 
148 14 
148 176 
148 257 
148 23 
148 86 
148 221 
148 203 
148 95 
148 230 
148 17 
148 68 
148 41 
154 289 
154 307 
154 127 
154 316 
154 233 
154 215 
154 107 
154 242 
154 254 
154 20 
154 182 
154 263 
154 2 
154 92 
154 227 
154 209 
154 101 
154 236 
154 23 
154 74 
154 47 
157 292 
157 310 
157 130 
157 319 
157 227 
157 209 
157 101 
157 236 
157 257 
157 23 
157 185 
157 266 
157 5 
157 95 
157 230 
157 212 
157 104 
157 239 
157 26 
157 77 
157 50 
163 244 
163 235 
163 190 
163 217 
163 322 
163 34 
163 115 
163 304 
163 73 
163 289 
163 136 
163 55 
163 271 
163 316 
163 28 
163 109 
163 298 
163 37 
163 58 
163 2 
163 83 
164 245 
164 236 
164 191 
164 218 
164 323 
164 35 
164 116 
164 305 
164 74 
164 290 
164 137 
164 56 
164 272 
164 317 
164 29 
164 110 
164 299 
164 38 
164 59 
164 3 
164 84 
166 247 
166 238 
166 193 
166 220 
166 316 
166 28 
166 109 
166 298 
166 76 
166 292 
166 139 
166 58 
166 274 
166 319 
166 31 
166 112 
166 301 
166 40 
166 61 
166 5 
166 86 
167 248 
167 239 
167 194 
167 221 
167 317 
167 29 
167 110 
167 299 
167 77 
167 293 
167 140 
167 59 
167 275 
167 320 
167 32 
167 113 
167 302 
167 41 
167 62 
167 6 
167 87 
172 253 
172 217 
172 199 
172 226 
172 304 
172 43 
172 124 
172 313 
172 55 
172 271 
172 145 
172 64 
172 280 
172 298 
172 37 
172 118 
172 307 
172 46 
172 67 
172 11 
172 92 
173 254 
173 218 
173 200 
173 227 
173 305 
173 44 
173 125 
173 314 
173 56 
173 272 
173 146 
173 65 
173 281 
173 299 
173 38 
173 119 
173 308 
173 47 
173 68 
173 12 
173 93 
175 256 
175 220 
175 202 
175 229 
175 298 
175 37 
175 118 
175 307 
175 58 
175 274 
175 148 
175 67 
175 283 
175 301 
175 40 
175 121 
175 310 
175 49 
175 70 
175 14 
175 95 
176 257 
176 221 
176 203 
176 230 
176 299 
176 38 
176 119 
176 308 
176 59 
176 275 
176 149 
176 68 
176 284 
176 302 
176 41 
176 122 
176 311 
176 50 
176 71 
176 15 
176 96 
181 262 
181 226 
181 208 
181 235 
181 313 
181 52 
181 133 
181 322 
181 64 
181 280 
181 154 
181 73 
181 289 
181 307 
181 46 
181 127 
181 316 
181 28 
181 76 
181 20 
181 101 
182 263 
182 227 
182 209 
182 236 
182 314 
182 53 
182 134 
182 323 
182 65 
182 281 
182 155 
182 74 
182 290 
182 308 
182 47 
182 128 
182 317 
182 29 
182 77 
182 21 
182 102 
184 265 
184 229 
184 211 
184 238 
184 307 
184 46 
184 127 
184 316 
184 67 
184 283 
184 157 
184 76 
184 292 
184 310 
184 49 
184 130 
184 319 
184 31 
184 79 
184 23 
184 104 
185 266 
185 230 
185 212 
185 239 
185 308 
185 47 
185 128 
185 317 
185 68 
185 284 
185 158 
185 77 
185 293 
185 311 
185 50 
185 131 
185 320 
185 32 
185 80 
185 24 
185 105 
190 217 
190 265 
190 166 
190 247 
190 289 
190 136 
190 55 
190 271 
190 316 
190 28 
190 109 
190 298 
190 37 
190 76 
190 292 
190 139 
190 58 
190 274 
190 31 
190 83 
190 5 
191 218 
191 266 
191 167 
191 248 
191 290 
191 137 
191 56 
191 272 
191 317 
191 29 
191 110 
191 299 
191 38 
191 77 
191 293 
191 140 
191 59 
191 275 
191 32 
191 84 
191 6 
199 226 
199 247 
199 175 
199 256 
199 271 
199 145 
199 64 
199 280 
199 298 
199 37 
199 118 
199 307 
199 46 
199 58 
199 274 
199 148 
199 67 
199 283 
199 40 
199 92 
199 14 
200 227 
200 248 
200 176 
200 257 
200 272 
200 146 
200 65 
200 281 
200 299 
200 38 
200 119 
200 308 
200 47 
200 59 
200 275 
200 149 
200 68 
200 284 
200 41 
200 93 
200 15 
208 235 
208 256 
208 184 
208 265 
208 280 
208 154 
208 73 
208 289 
208 307 
208 46 
208 127 
208 316 
208 28 
208 67 
208 283 
208 157 
208 76 
208 292 
208 49 
208 101 
208 23 
209 236 
209 257 
209 185 
209 266 
209 281 
209 155 
209 74 
209 290 
209 308 
209 47 
209 128 
209 317 
209 29 
209 68 
209 284 
209 158 
209 77 
209 293 
209 50 
209 102 
209 24 
217 199 
217 166 
217 247 
217 175 
217 136 
217 55 
217 271 
217 145 
217 28 
217 109 
217 298 
217 37 
217 118 
217 139 
217 58 
217 274 
217 148 
217 67 
217 40 
217 83 
217 14 
218 200 
218 167 
218 248 
218 176 
218 137 
218 56 
218 272 
218 146 
218 29 
218 110 
218 299 
218 38 
218 119 
218 140 
218 59 
218 275 
218 149 
218 68 
218 41 
218 84 
218 15 
226 208 
226 175 
226 256 
226 184 
226 145 
226 64 
226 280 
226 154 
226 37 
226 118 
226 307 
226 46 
226 127 
226 148 
226 67 
226 283 
226 157 
226 76 
226 49 
226 92 
226 23 
227 209 
227 176 
227 257 
227 185 
227 146 
227 65 
227 281 
227 155 
227 38 
227 119 
227 308 
227 47 
227 128 
227 149 
227 68 
227 284 
227 158 
227 77 
227 50 
227 93 
227 24 
235 190 
235 184 
235 265 
235 166 
235 154 
235 73 
235 289 
235 136 
235 46 
235 127 
235 316 
235 28 
235 109 
235 157 
235 76 
235 292 
235 139 
235 58 
235 31 
235 101 
235 5 
236 191 
236 185 
236 266 
236 167 
236 155 
236 74 
236 290 
236 137 
236 47 
236 128 
236 317 
236 29 
236 110 
236 158 
236 77 
236 293 
236 140 
236 59 
236 32 
236 102 
236 6 
244 172 
244 190 
244 217 
244 199 
244 115 
244 304 
244 43 
244 124 
244 136 
244 55 
244 271 
244 145 
244 64 
244 28 
244 109 
244 298 
244 37 
244 118 
244 58 
244 11 
244 83 
245 173 
245 191 
245 218 
245 200 
245 116 
245 305 
245 44 
245 125 
245 137 
245 56 
245 272 
245 146 
245 65 
245 29 
245 110 
245 299 
245 38 
245 119 
245 59 
245 12 
245 84 
247 175 
247 193 
247 220 
247 202 
247 109 
247 298 
247 37 
247 118 
247 139 
247 58 
247 274 
247 148 
247 67 
247 31 
247 112 
247 301 
247 40 
247 121 
247 61 
247 14 
247 86 
248 176 
248 194 
248 221 
248 203 
248 110 
248 299 
248 38 
248 119 
248 140 
248 59 
248 275 
248 149 
248 68 
248 32 
248 113 
248 302 
248 41 
248 122 
248 62 
248 15 
248 87 
253 181 
253 199 
253 226 
253 208 
253 124 
253 313 
253 52 
253 133 
253 145 
253 64 
253 280 
253 154 
253 73 
253 37 
253 118 
253 307 
253 46 
253 127 
253 67 
253 20 
253 92 
254 182 
254 200 
254 227 
254 209 
254 125 
254 314 
254 53 
254 134 
254 146 
254 65 
254 281 
254 155 
254 74 
254 38 
254 119 
254 308 
254 47 
254 128 
254 68 
254 21 
254 93 
256 184 
256 202 
256 229 
256 211 
256 118 
256 307 
256 46 
256 127 
256 148 
256 67 
256 283 
256 157 
256 76 
256 40 
256 121 
256 310 
256 49 
256 130 
256 70 
256 23 
256 95 
257 185 
257 203 
257 230 
257 212 
257 119 
257 308 
257 47 
257 128 
257 149 
257 68 
257 284 
257 158 
257 77 
257 41 
257 122 
257 311 
257 50 
257 131 
257 71 
257 24 
257 96 
262 163 
262 208 
262 235 
262 190 
262 133 
262 322 
262 34 
262 115 
262 154 
262 73 
262 289 
262 136 
262 55 
262 46 
262 127 
262 316 
262 28 
262 109 
262 76 
262 2 
262 101 
263 164 
263 209 
263 236 
263 191 
263 134 
263 323 
263 35 
263 116 
263 155 
263 74 
263 290 
263 137 
263 56 
263 47 
263 128 
263 317 
263 29 
263 110 
263 77 
263 3 
263 102 
265 166 
265 211 
265 238 
265 193 
265 127 
265 316 
265 28 
265 109 
265 157 
265 76 
265 292 
265 139 
265 58 
265 49 
265 130 
265 319 
265 31 
265 112 
265 79 
265 5 
265 104 
266 167 
266 212 
266 239 
266 194 
266 128 
266 317 
266 29 
266 110 
266 158 
266 77 
266 293 
266 140 
266 59 
266 50 
266 131 
266 320 
266 32 
266 113 
266 80 
266 6 
266 105 
271 145 
271 109 
271 298 
271 118 
271 197 
271 89 
271 224 
271 206 
271 2 
271 164 
271 245 
271 11 
271 173 
271 191 
271 83 
271 218 
271 200 
271 92 
271 14 
271 56 
271 38 
274 148 
274 112 
274 301 
274 121 
274 191 
274 83 
274 218 
274 200 
274 5 
274 167 
274 248 
274 14 
274 176 
274 194 
274 86 
274 221 
274 203 
274 95 
274 17 
274 59 
274 41 
280 154 
280 118 
280 307 
280 127 
280 206 
280 98 
280 233 
280 215 
280 11 
280 173 
280 254 
280 20 
280 182 
280 200 
280 92 
280 227 
280 209 
280 101 
280 23 
280 65 
280 47 
283 157 
283 121 
283 310 
283 130 
283 200 
283 92 
283 227 
283 209 
283 14 
283 176 
283 257 
283 23 
283 185 
283 203 
283 95 
283 230 
283 212 
283 104 
283 26 
283 68 
283 50 
289 136 
289 127 
289 316 
289 109 
289 215 
289 107 
289 242 
289 197 
289 20 
289 182 
289 263 
289 2 
289 164 
289 209 
289 101 
289 236 
289 191 
289 83 
289 5 
289 74 
289 29 
292 139 
292 130 
292 319 
292 112 
292 209 
292 101 
292 236 
292 191 
292 23 
292 185 
292 266 
292 5 
292 167 
292 212 
292 104 
292 239 
292 194 
292 86 
292 8 
292 77 
292 32 
298 118 
298 139 
298 274 
298 148 
298 164 
298 245 
298 11 
298 173 
298 191 
298 83 
298 218 
298 200 
298 92 
298 5 
298 167 
298 248 
298 14 
298 176 
298 86 
298 38 
298 59 
307 127 
307 148 
307 283 
307 157 
307 173 
307 254 
307 20 
307 182 
307 200 
307 92 
307 227 
307 209 
307 101 
307 14 
307 176 
307 257 
307 23 
307 185 
307 95 
307 47 
307 68 
316 109 
316 157 
316 292 
316 139 
316 182 
316 263 
316 2 
316 164 
316 209 
316 101 
316 236 
316 191 
316 83 
316 23 
316 185 
316 266 
316 5 
316 167 
316 104 
316 29 
316 77 
3 270 
3 171 
3 216 
3 243 
3 198 
3 225 
3 183 
3 264 
3 165 
3 246 
3 102 
3 237 
3 192 
3 84 
3 324 
3 36 
3 117 
3 75 
3 291 
3 138 
3 57 
3 30 
6 264 
6 165 
6 210 
6 237 
6 192 
6 219 
6 186 
6 267 
6 168 
6 249 
6 105 
6 240 
6 195 
6 87 
6 318 
6 30 
6 111 
6 78 
6 294 
6 141 
6 60 
6 33 
12 252 
12 180 
12 198 
12 225 
12 207 
12 234 
12 165 
12 246 
12 174 
12 255 
12 84 
12 219 
12 201 
12 93 
12 306 
12 45 
12 126 
12 57 
12 273 
12 147 
12 66 
12 39 
15 246 
15 174 
15 192 
15 219 
15 201 
15 228 
15 168 
15 249 
15 177 
15 258 
15 87 
15 222 
15 204 
15 96 
15 300 
15 39 
15 120 
15 60 
15 276 
15 150 
15 69 
15 42 
21 261 
21 189 
21 207 
21 234 
21 216 
21 243 
21 174 
21 255 
21 183 
21 264 
21 93 
21 228 
21 210 
21 102 
21 315 
21 54 
21 135 
21 66 
21 282 
21 156 
21 75 
21 48 
24 255 
24 183 
24 201 
24 228 
24 210 
24 237 
24 177 
24 258 
24 186 
24 267 
24 96 
24 231 
24 213 
24 105 
24 309 
24 48 
24 129 
24 69 
24 285 
24 159 
24 78 
24 51 
29 323 
29 116 
29 155 
29 290 
29 137 
29 272 
29 128 
29 317 
29 110 
29 299 
29 77 
29 293 
29 140 
29 59 
29 264 
29 3 
29 165 
29 102 
29 237 
29 192 
29 84 
29 6 
30 324 
30 117 
30 156 
30 291 
30 138 
30 273 
30 129 
30 318 
30 111 
30 300 
30 78 
30 294 
30 141 
30 60 
30 262 
30 1 
30 163 
30 100 
30 235 
30 190 
30 82 
30 4 
38 305 
38 125 
38 137 
38 272 
38 146 
38 281 
38 110 
38 299 
38 119 
38 308 
38 59 
38 275 
38 149 
38 68 
38 246 
38 12 
38 174 
38 84 
38 219 
38 201 
38 93 
38 15 
39 306 
39 126 
39 138 
39 273 
39 147 
39 282 
39 111 
39 300 
39 120 
39 309 
39 60 
39 276 
39 150 
39 69 
39 244 
39 10 
39 172 
39 82 
39 217 
39 199 
39 91 
39 13 
47 314 
47 134 
47 146 
47 281 
47 155 
47 290 
47 119 
47 308 
47 128 
47 317 
47 68 
47 284 
47 158 
47 77 
47 255 
47 21 
47 183 
47 93 
47 228 
47 210 
47 102 
47 24 
48 315 
48 135 
48 147 
48 282 
48 156 
48 291 
48 120 
48 309 
48 129 
48 318 
48 69 
48 285 
48 159 
48 78 
48 253 
48 19 
48 181 
48 91 
48 226 
48 208 
48 100 
48 22 
56 143 
56 278 
56 323 
56 116 
56 305 
56 125 
56 290 
56 137 
56 272 
56 146 
56 29 
56 110 
56 299 
56 38 
56 198 
56 90 
56 225 
56 3 
56 165 
56 246 
56 12 
56 84 
57 144 
57 279 
57 324 
57 117 
57 306 
57 126 
57 291 
57 138 
57 273 
57 147 
57 30 
57 111 
57 300 
57 39 
57 196 
57 88 
57 223 
57 1 
57 163 
57 244 
57 10 
57 82 
59 137 
59 272 
59 317 
59 110 
59 299 
59 119 
59 293 
59 140 
59 275 
59 149 
59 32 
59 113 
59 302 
59 41 
59 192 
59 84 
59 219 
59 6 
59 168 
59 249 
59 15 
59 87 
60 138 
60 273 
60 318 
60 111 
60 300 
60 120 
60 294 
60 141 
60 276 
60 150 
60 33 
60 114 
60 303 
60 42 
60 190 
60 82 
60 217 
60 4 
60 166 
60 247 
60 13 
60 85 
65 152 
65 287 
65 305 
65 125 
65 314 
65 134 
65 272 
65 146 
65 281 
65 155 
65 38 
65 119 
65 308 
65 47 
65 207 
65 99 
65 234 
65 12 
65 174 
65 255 
65 21 
65 93 
66 153 
66 288 
66 306 
66 126 
66 315 
66 135 
66 273 
66 147 
66 282 
66 156 
66 39 
66 120 
66 309 
66 48 
66 205 
66 97 
66 232 
66 10 
66 172 
66 253 
66 19 
66 91 
68 146 
68 281 
68 299 
68 119 
68 308 
68 128 
68 275 
68 149 
68 284 
68 158 
68 41 
68 122 
68 311 
68 50 
68 201 
68 93 
68 228 
68 15 
68 177 
68 258 
68 24 
68 96 
69 147 
69 282 
69 300 
69 120 
69 309 
69 129 
69 276 
69 150 
69 285 
69 159 
69 42 
69 123 
69 312 
69 51 
69 199 
69 91 
69 226 
69 13 
69 175 
69 256 
69 22 
69 94 
74 161 
74 296 
74 314 
74 134 
74 323 
74 116 
74 281 
74 155 
74 290 
74 137 
74 47 
74 128 
74 317 
74 29 
74 216 
74 108 
74 243 
74 21 
74 183 
74 264 
74 3 
74 102 
75 162 
75 297 
75 315 
75 135 
75 324 
75 117 
75 282 
75 156 
75 291 
75 138 
75 48 
75 129 
75 318 
75 30 
75 214 
75 106 
75 241 
75 19 
75 181 
75 262 
75 1 
75 100 
77 155 
77 290 
77 308 
77 128 
77 317 
77 110 
77 284 
77 158 
77 293 
77 140 
77 50 
77 131 
77 320 
77 32 
77 210 
77 102 
77 237 
77 24 
77 186 
77 267 
77 6 
77 105 
78 156 
78 291 
78 309 
78 129 
78 318 
78 111 
78 285 
78 159 
78 294 
78 141 
78 51 
78 132 
78 321 
78 33 
78 208 
78 100 
78 235 
78 22 
78 184 
78 265 
78 4 
78 103 
84 198 
84 225 
84 264 
84 165 
84 246 
84 174 
84 237 
84 192 
84 219 
84 201 
84 6 
84 168 
84 249 
84 15 
84 138 
84 57 
84 273 
84 30 
84 111 
84 300 
84 39 
84 60 
93 207 
93 234 
93 246 
93 174 
93 255 
93 183 
93 219 
93 201 
93 228 
93 210 
93 15 
93 177 
93 258 
93 24 
93 147 
93 66 
93 282 
93 39 
93 120 
93 309 
93 48 
93 69 
102 216 
102 243 
102 255 
102 183 
102 264 
102 165 
102 228 
102 210 
102 237 
102 192 
102 24 
102 186 
102 267 
102 6 
102 156 
102 75 
102 291 
102 48 
102 129 
102 318 
102 30 
102 78 
110 299 
110 293 
110 140 
110 275 
110 264 
110 3 
110 165 
110 246 
110 102 
110 237 
110 192 
110 84 
110 219 
110 267 
110 6 
110 168 
110 249 
110 15 
110 87 
110 30 
110 60 
111 300 
111 294 
111 141 
111 276 
111 262 
111 1 
111 163 
111 244 
111 100 
111 235 
111 190 
111 82 
111 217 
111 265 
111 4 
111 166 
111 247 
111 13 
111 85 
111 28 
111 58 
119 308 
119 275 
119 149 
119 284 
119 246 
119 12 
119 174 
119 255 
119 84 
119 219 
119 201 
119 93 
119 228 
119 249 
119 15 
119 177 
119 258 
119 24 
119 96 
119 39 
119 69 
120 309 
120 276 
120 150 
120 285 
120 244 
120 10 
120 172 
120 253 
120 82 
120 217 
120 199 
120 91 
120 226 
120 247 
120 13 
120 175 
120 256 
120 22 
120 94 
120 37 
120 67 
128 317 
128 284 
128 158 
128 293 
128 255 
128 21 
128 183 
128 264 
128 93 
128 228 
128 210 
128 102 
128 237 
128 258 
128 24 
128 186 
128 267 
128 6 
128 105 
128 48 
128 78 
129 318 
129 285 
129 159 
129 294 
129 253 
129 19 
129 181 
129 262 
129 91 
129 226 
129 208 
129 100 
129 235 
129 256 
129 22 
129 184 
129 265 
129 4 
129 103 
129 46 
129 76 
137 272 
137 317 
137 110 
137 299 
137 243 
137 198 
137 90 
137 225 
137 264 
137 3 
137 165 
137 246 
137 12 
137 102 
137 237 
137 192 
137 84 
137 219 
137 6 
137 57 
137 30 
138 273 
138 318 
138 111 
138 300 
138 241 
138 196 
138 88 
138 223 
138 262 
138 1 
138 163 
138 244 
138 10 
138 100 
138 235 
138 190 
138 82 
138 217 
138 4 
138 55 
138 28 
140 275 
140 320 
140 113 
140 302 
140 237 
140 192 
140 84 
140 219 
140 267 
140 6 
140 168 
140 249 
140 15 
140 105 
140 240 
140 195 
140 87 
140 222 
140 9 
140 60 
140 33 
141 276 
141 321 
141 114 
141 303 
141 235 
141 190 
141 82 
141 217 
141 265 
141 4 
141 166 
141 247 
141 13 
141 103 
141 238 
141 193 
141 85 
141 220 
141 7 
141 58 
141 31 
146 281 
146 299 
146 119 
146 308 
146 225 
146 207 
146 99 
146 234 
146 246 
146 12 
146 174 
146 255 
146 21 
146 84 
146 219 
146 201 
146 93 
146 228 
146 15 
146 66 
146 39 
147 282 
147 300 
147 120 
147 309 
147 223 
147 205 
147 97 
147 232 
147 244 
147 10 
147 172 
147 253 
147 19 
147 82 
147 217 
147 199 
147 91 
147 226 
147 13 
147 64 
147 37 
149 284 
149 302 
149 122 
149 311 
149 219 
149 201 
149 93 
149 228 
149 249 
149 15 
149 177 
149 258 
149 24 
149 87 
149 222 
149 204 
149 96 
149 231 
149 18 
149 69 
149 42 
150 285 
150 303 
150 123 
150 312 
150 217 
150 199 
150 91 
150 226 
150 247 
150 13 
150 175 
150 256 
150 22 
150 85 
150 220 
150 202 
150 94 
150 229 
150 16 
150 67 
150 40 
155 290 
155 308 
155 128 
155 317 
155 234 
155 216 
155 108 
155 243 
155 255 
155 21 
155 183 
155 264 
155 3 
155 93 
155 228 
155 210 
155 102 
155 237 
155 24 
155 75 
155 48 
156 291 
156 309 
156 129 
156 318 
156 232 
156 214 
156 106 
156 241 
156 253 
156 19 
156 181 
156 262 
156 1 
156 91 
156 226 
156 208 
156 100 
156 235 
156 22 
156 73 
156 46 
158 293 
158 311 
158 131 
158 320 
158 228 
158 210 
158 102 
158 237 
158 258 
158 24 
158 186 
158 267 
158 6 
158 96 
158 231 
158 213 
158 105 
158 240 
158 27 
158 78 
158 51 
159 294 
159 312 
159 132 
159 321 
159 226 
159 208 
159 100 
159 235 
159 256 
159 22 
159 184 
159 265 
159 4 
159 94 
159 229 
159 211 
159 103 
159 238 
159 25 
159 76 
159 49 
165 246 
165 237 
165 192 
165 219 
165 324 
165 36 
165 117 
165 306 
165 75 
165 291 
165 138 
165 57 
165 273 
165 318 
165 30 
165 111 
165 300 
165 39 
165 60 
165 1 
165 82 
168 249 
168 240 
168 195 
168 222 
168 318 
168 30 
168 111 
168 300 
168 78 
168 294 
168 141 
168 60 
168 276 
168 321 
168 33 
168 114 
168 303 
168 42 
168 63 
168 4 
168 85 
174 255 
174 219 
174 201 
174 228 
174 306 
174 45 
174 126 
174 315 
174 57 
174 273 
174 147 
174 66 
174 282 
174 300 
174 39 
174 120 
174 309 
174 48 
174 69 
174 10 
174 91 
177 258 
177 222 
177 204 
177 231 
177 300 
177 39 
177 120 
177 309 
177 60 
177 276 
177 150 
177 69 
177 285 
177 303 
177 42 
177 123 
177 312 
177 51 
177 72 
177 13 
177 94 
183 264 
183 228 
183 210 
183 237 
183 315 
183 54 
183 135 
183 324 
183 66 
183 282 
183 156 
183 75 
183 291 
183 309 
183 48 
183 129 
183 318 
183 30 
183 78 
183 19 
183 100 
186 267 
186 231 
186 213 
186 240 
186 309 
186 48 
186 129 
186 318 
186 69 
186 285 
186 159 
186 78 
186 294 
186 312 
186 51 
186 132 
186 321 
186 33 
186 81 
186 22 
186 103 
192 219 
192 267 
192 168 
192 249 
192 291 
192 138 
192 57 
192 273 
192 318 
192 30 
192 111 
192 300 
192 39 
192 78 
192 294 
192 141 
192 60 
192 276 
192 33 
192 82 
192 4 
201 228 
201 249 
201 177 
201 258 
201 273 
201 147 
201 66 
201 282 
201 300 
201 39 
201 120 
201 309 
201 48 
201 60 
201 276 
201 150 
201 69 
201 285 
201 42 
201 91 
201 13 
210 237 
210 258 
210 186 
210 267 
210 282 
210 156 
210 75 
210 291 
210 309 
210 48 
210 129 
210 318 
210 30 
210 69 
210 285 
210 159 
210 78 
210 294 
210 51 
210 100 
210 22 
219 201 
219 168 
219 249 
219 177 
219 138 
219 57 
219 273 
219 147 
219 30 
219 111 
219 300 
219 39 
219 120 
219 141 
219 60 
219 276 
219 150 
219 69 
219 42 
219 82 
219 13 
228 210 
228 177 
228 258 
228 186 
228 147 
228 66 
228 282 
228 156 
228 39 
228 120 
228 309 
228 48 
228 129 
228 150 
228 69 
228 285 
228 159 
228 78 
228 51 
228 91 
228 22 
237 192 
237 186 
237 267 
237 168 
237 156 
237 75 
237 291 
237 138 
237 48 
237 129 
237 318 
237 30 
237 111 
237 159 
237 78 
237 294 
237 141 
237 60 
237 33 
237 100 
237 4 
246 174 
246 192 
246 219 
246 201 
246 117 
246 306 
246 45 
246 126 
246 138 
246 57 
246 273 
246 147 
246 66 
246 30 
246 111 
246 300 
246 39 
246 120 
246 60 
246 10 
246 82 
249 177 
249 195 
249 222 
249 204 
249 111 
249 300 
249 39 
249 120 
249 141 
249 60 
249 276 
249 150 
249 69 
249 33 
249 114 
249 303 
249 42 
249 123 
249 63 
249 13 
249 85 
255 183 
255 201 
255 228 
255 210 
255 126 
255 315 
255 54 
255 135 
255 147 
255 66 
255 282 
255 156 
255 75 
255 39 
255 120 
255 309 
255 48 
255 129 
255 69 
255 19 
255 91 
258 186 
258 204 
258 231 
258 213 
258 120 
258 309 
258 48 
258 129 
258 150 
258 69 
258 285 
258 159 
258 78 
258 42 
258 123 
258 312 
258 51 
258 132 
258 72 
258 22 
258 94 
264 165 
264 210 
264 237 
264 192 
264 135 
264 324 
264 36 
264 117 
264 156 
264 75 
264 291 
264 138 
264 57 
264 48 
264 129 
264 318 
264 30 
264 111 
264 78 
264 1 
264 100 
267 168 
267 213 
267 240 
267 195 
267 129 
267 318 
267 30 
267 111 
267 159 
267 78 
267 294 
267 141 
267 60 
267 51 
267 132 
267 321 
267 33 
267 114 
267 81 
267 4 
267 103 
272 146 
272 110 
272 299 
272 119 
272 198 
272 90 
272 225 
272 207 
272 3 
272 165 
272 246 
272 12 
272 174 
272 192 
272 84 
272 219 
272 201 
272 93 
272 15 
272 57 
272 39 
273 147 
273 111 
273 300 
273 120 
273 196 
273 88 
273 223 
273 205 
273 1 
273 163 
273 244 
273 10 
273 172 
273 190 
273 82 
273 217 
273 199 
273 91 
273 13 
273 55 
273 37 
275 149 
275 113 
275 302 
275 122 
275 192 
275 84 
275 219 
275 201 
275 6 
275 168 
275 249 
275 15 
275 177 
275 195 
275 87 
275 222 
275 204 
275 96 
275 18 
275 60 
275 42 
276 150 
276 114 
276 303 
276 123 
276 190 
276 82 
276 217 
276 199 
276 4 
276 166 
276 247 
276 13 
276 175 
276 193 
276 85 
276 220 
276 202 
276 94 
276 16 
276 58 
276 40 
281 155 
281 119 
281 308 
281 128 
281 207 
281 99 
281 234 
281 216 
281 12 
281 174 
281 255 
281 21 
281 183 
281 201 
281 93 
281 228 
281 210 
281 102 
281 24 
281 66 
281 48 
282 156 
282 120 
282 309 
282 129 
282 205 
282 97 
282 232 
282 214 
282 10 
282 172 
282 253 
282 19 
282 181 
282 199 
282 91 
282 226 
282 208 
282 100 
282 22 
282 64 
282 46 
284 158 
284 122 
284 311 
284 131 
284 201 
284 93 
284 228 
284 210 
284 15 
284 177 
284 258 
284 24 
284 186 
284 204 
284 96 
284 231 
284 213 
284 105 
284 27 
284 69 
284 51 
285 159 
285 123 
285 312 
285 132 
285 199 
285 91 
285 226 
285 208 
285 13 
285 175 
285 256 
285 22 
285 184 
285 202 
285 94 
285 229 
285 211 
285 103 
285 25 
285 67 
285 49 
290 137 
290 128 
290 317 
290 110 
290 216 
290 108 
290 243 
290 198 
290 21 
290 183 
290 264 
290 3 
290 165 
290 210 
290 102 
290 237 
290 192 
290 84 
290 6 
290 75 
290 30 
291 138 
291 129 
291 318 
291 111 
291 214 
291 106 
291 241 
291 196 
291 19 
291 181 
291 262 
291 1 
291 163 
291 208 
291 100 
291 235 
291 190 
291 82 
291 4 
291 73 
291 28 
293 140 
293 131 
293 320 
293 113 
293 210 
293 102 
293 237 
293 192 
293 24 
293 186 
293 267 
293 6 
293 168 
293 213 
293 105 
293 240 
293 195 
293 87 
293 9 
293 78 
293 33 
294 141 
294 132 
294 321 
294 114 
294 208 
294 100 
294 235 
294 190 
294 22 
294 184 
294 265 
294 4 
294 166 
294 211 
294 103 
294 238 
294 193 
294 85 
294 7 
294 76 
294 31 
299 119 
299 140 
299 275 
299 149 
299 165 
299 246 
299 12 
299 174 
299 192 
299 84 
299 219 
299 201 
299 93 
299 6 
299 168 
299 249 
299 15 
299 177 
299 87 
299 39 
299 60 
300 120 
300 141 
300 276 
300 150 
300 163 
300 244 
300 10 
300 172 
300 190 
300 82 
300 217 
300 199 
300 91 
300 4 
300 166 
300 247 
300 13 
300 175 
300 85 
300 37 
300 58 
308 128 
308 149 
308 284 
308 158 
308 174 
308 255 
308 21 
308 183 
308 201 
308 93 
308 228 
308 210 
308 102 
308 15 
308 177 
308 258 
308 24 
308 186 
308 96 
308 48 
308 69 
309 129 
309 150 
309 285 
309 159 
309 172 
309 253 
309 19 
309 181 
309 199 
309 91 
309 226 
309 208 
309 100 
309 13 
309 175 
309 256 
309 22 
309 184 
309 94 
309 46 
309 67 
317 110 
317 158 
317 293 
317 140 
317 183 
317 264 
317 3 
317 165 
317 210 
317 102 
317 237 
317 192 
317 84 
317 24 
317 186 
317 267 
317 6 
317 168 
317 105 
317 30 
317 78 
318 111 
318 159 
318 294 
318 141 
318 181 
318 262 
318 1 
318 163 
318 208 
318 100 
318 235 
318 190 
318 82 
318 22 
318 184 
318 265 
318 4 
318 166 
318 103 
318 28 
318 76 
7 265 
7 166 
7 211 
7 238 
7 193 
7 220 
7 187 
7 268 
7 169 
7 250 
7 106 
7 241 
7 196 
7 88 
7 319 
7 31 
7 112 
7 79 
7 295 
7 142 
7 61 
7 34 
8 266 
8 167 
8 212 
8 239 
8 194 
8 221 
8 188 
8 269 
8 170 
8 251 
8 107 
8 242 
8 197 
8 89 
8 320 
8 32 
8 113 
8 80 
8 296 
8 143 
8 62 
8 35 
16 247 
16 175 
16 193 
16 220 
16 202 
16 229 
16 169 
16 250 
16 178 
16 259 
16 88 
16 223 
16 205 
16 97 
16 301 
16 40 
16 121 
16 61 
16 277 
16 151 
16 70 
16 43 
17 248 
17 176 
17 194 
17 221 
17 203 
17 230 
17 170 
17 251 
17 179 
17 260 
17 89 
17 224 
17 206 
17 98 
17 302 
17 41 
17 122 
17 62 
17 278 
17 152 
17 71 
17 44 
25 256 
25 184 
25 202 
25 229 
25 211 
25 238 
25 178 
25 259 
25 187 
25 268 
25 97 
25 232 
25 214 
25 106 
25 310 
25 49 
25 130 
25 70 
25 286 
25 160 
25 79 
25 52 
26 257 
26 185 
26 203 
26 230 
26 212 
26 239 
26 179 
26 260 
26 188 
26 269 
26 98 
26 233 
26 215 
26 107 
26 311 
26 50 
26 131 
26 71 
26 287 
26 161 
26 80 
26 53 
31 316 
31 109 
31 157 
31 292 