# SiO2 alpha quartz 

     324  atoms
     2  atom types

0 15.6051 xlo xhi
0 15.6051 ylo yhi
0 15.6051 zlo zhi
0 0.0 0.0  xy xz yz

Masses

	1 89
	2 1

Atoms

1 1 0. 0. 0.
2 1 0. 0. 5.2017
3 1 0. 0. 10.4034
4 1 0. 5.2017 0.
5 1 0. 5.2017 5.2017
6 1 0. 5.2017 10.4034
7 1 0. 10.4034 0.
8 1 0. 10.4034 5.2017
9 1 0. 10.4034 10.4034
10 1 5.2017 0. 0.
11 1 5.2017 0. 5.2017
12 1 5.2017 0. 10.4034
13 1 5.2017 5.2017 0.
14 1 5.2017 5.2017 5.2017
15 1 5.2017 5.2017 10.4034
16 1 5.2017 10.4034 0.
17 1 5.2017 10.4034 5.2017
18 1 5.2017 10.4034 10.4034
19 1 10.4034 0. 0.
20 1 10.4034 0. 5.2017
21 1 10.4034 0. 10.4034
22 1 10.4034 5.2017 0.
23 1 10.4034 5.2017 5.2017
24 1 10.4034 5.2017 10.4034
25 1 10.4034 10.4034 0.
26 1 10.4034 10.4034 5.2017
27 1 10.4034 10.4034 10.4034
28 1 0. 2.60085 2.60085
29 1 0. 2.60085 7.80255
30 1 0. 2.60085 13.0043
31 1 0. 7.80255 2.60085
32 1 0. 7.80255 7.80255
33 1 0. 7.80255 13.0043
34 1 0. 13.0043 2.60085
35 1 0. 13.0043 7.80255
36 1 0. 13.0043 13.0043
37 1 5.2017 2.60085 2.60085
38 1 5.2017 2.60085 7.80255
39 1 5.2017 2.60085 13.0043
40 1 5.2017 7.80255 2.60085
41 1 5.2017 7.80255 7.80255
42 1 5.2017 7.80255 13.0043
43 1 5.2017 13.0043 2.60085
44 1 5.2017 13.0043 7.80255
45 1 5.2017 13.0043 13.0043
46 1 10.4034 2.60085 2.60085
47 1 10.4034 2.60085 7.80255
48 1 10.4034 2.60085 13.0043
49 1 10.4034 7.80255 2.60085
50 1 10.4034 7.80255 7.80255
51 1 10.4034 7.80255 13.0043
52 1 10.4034 13.0043 2.60085
53 1 10.4034 13.0043 7.80255
54 1 10.4034 13.0043 13.0043
55 1 2.60085 0. 2.60085
56 1 2.60085 0. 7.80255
57 1 2.60085 0. 13.0043
58 1 2.60085 5.2017 2.60085
59 1 2.60085 5.2017 7.80255
60 1 2.60085 5.2017 13.0043
61 1 2.60085 10.4034 2.60085
62 1 2.60085 10.4034 7.80255
63 1 2.60085 10.4034 13.0043
64 1 7.80255 0. 2.60085
65 1 7.80255 0. 7.80255
66 1 7.80255 0. 13.0043
67 1 7.80255 5.2017 2.60085
68 1 7.80255 5.2017 7.80255
69 1 7.80255 5.2017 13.0043
70 1 7.80255 10.4034 2.60085
71 1 7.80255 10.4034 7.80255
72 1 7.80255 10.4034 13.0043
73 1 13.0043 0. 2.60085
74 1 13.0043 0. 7.80255
75 1 13.0043 0. 13.0043
76 1 13.0043 5.2017 2.60085
77 1 13.0043 5.2017 7.80255
78 1 13.0043 5.2017 13.0043
79 1 13.0043 10.4034 2.60085
80 1 13.0043 10.4034 7.80255
81 1 13.0043 10.4034 13.0043
82 1 2.60085 2.60085 0.
83 1 2.60085 2.60085 5.2017
84 1 2.60085 2.60085 10.4034
85 1 2.60085 7.80255 0.
86 1 2.60085 7.80255 5.2017
87 1 2.60085 7.80255 10.4034
88 1 2.60085 13.0043 0.
89 1 2.60085 13.0043 5.2017
90 1 2.60085 13.0043 10.4034
91 1 7.80255 2.60085 0.
92 1 7.80255 2.60085 5.2017
93 1 7.80255 2.60085 10.4034
94 1 7.80255 7.80255 0.
95 1 7.80255 7.80255 5.2017
96 1 7.80255 7.80255 10.4034
97 1 7.80255 13.0043 0.
98 1 7.80255 13.0043 5.2017
99 1 7.80255 13.0043 10.4034
100 1 13.0043 2.60085 0.
101 1 13.0043 2.60085 5.2017
102 1 13.0043 2.60085 10.4034
103 1 13.0043 7.80255 0.
104 1 13.0043 7.80255 5.2017
105 1 13.0043 7.80255 10.4034
106 1 13.0043 13.0043 0.
107 1 13.0043 13.0043 5.2017
108 1 13.0043 13.0043 10.4034
109 2 1.30043 3.90128 3.90128
110 2 1.30043 3.90128 9.10298
111 2 1.30043 3.90128 14.3047
112 2 1.30043 9.10298 3.90128
113 2 1.30043 9.10298 9.10298
114 2 1.30043 9.10298 14.3047
115 2 1.30043 14.3047 3.90128
116 2 1.30043 14.3047 9.10298
117 2 1.30043 14.3047 14.3047
118 2 6.50213 3.90128 3.90128
119 2 6.50213 3.90128 9.10298
120 2 6.50213 3.90128 14.3047
121 2 6.50213 9.10298 3.90128
122 2 6.50213 9.10298 9.10298
123 2 6.50213 9.10298 14.3047
124 2 6.50213 14.3047 3.90128
125 2 6.50213 14.3047 9.10298
126 2 6.50213 14.3047 14.3047
127 2 11.7038 3.90128 3.90128
128 2 11.7038 3.90128 9.10298
129 2 11.7038 3.90128 14.3047
130 2 11.7038 9.10298 3.90128
131 2 11.7038 9.10298 9.10298
132 2 11.7038 9.10298 14.3047
133 2 11.7038 14.3047 3.90128
134 2 11.7038 14.3047 9.10298
135 2 11.7038 14.3047 14.3047
136 2 1.30043 1.30043 3.90128
137 2 1.30043 1.30043 9.10298
138 2 1.30043 1.30043 14.3047
139 2 1.30043 6.50213 3.90128
140 2 1.30043 6.50213 9.10298
141 2 1.30043 6.50213 14.3047
142 2 1.30043 11.7038 3.90128
143 2 1.30043 11.7038 9.10298
144 2 1.30043 11.7038 14.3047
145 2 6.50213 1.30043 3.90128
146 2 6.50213 1.30043 9.10298
147 2 6.50213 1.30043 14.3047
148 2 6.50213 6.50213 3.90128
149 2 6.50213 6.50213 9.10298
150 2 6.50213 6.50213 14.3047
151 2 6.50213 11.7038 3.90128
152 2 6.50213 11.7038 9.10298
153 2 6.50213 11.7038 14.3047
154 2 11.7038 1.30043 3.90128
155 2 11.7038 1.30043 9.10298
156 2 11.7038 1.30043 14.3047
157 2 11.7038 6.50213 3.90128
158 2 11.7038 6.50213 9.10298
159 2 11.7038 6.50213 14.3047
160 2 11.7038 11.7038 3.90128
161 2 11.7038 11.7038 9.10298
162 2 11.7038 11.7038 14.3047
163 2 1.30043 1.30043 1.30043
164 2 1.30043 1.30043 6.50213
165 2 1.30043 1.30043 11.7038
166 2 1.30043 6.50213 1.30043
167 2 1.30043 6.50213 6.50213
168 2 1.30043 6.50213 11.7038
169 2 1.30043 11.7038 1.30043
170 2 1.30043 11.7038 6.50213
171 2 1.30043 11.7038 11.7038
172 2 6.50213 1.30043 1.30043
173 2 6.50213 1.30043 6.50213
174 2 6.50213 1.30043 11.7038
175 2 6.50213 6.50213 1.30043
176 2 6.50213 6.50213 6.50213
177 2 6.50213 6.50213 11.7038
178 2 6.50213 11.7038 1.30043
179 2 6.50213 11.7038 6.50213
180 2 6.50213 11.7038 11.7038
181 2 11.7038 1.30043 1.30043
182 2 11.7038 1.30043 6.50213
183 2 11.7038 1.30043 11.7038
184 2 11.7038 6.50213 1.30043
185 2 11.7038 6.50213 6.50213
186 2 11.7038 6.50213 11.7038
187 2 11.7038 11.7038 1.30043
188 2 11.7038 11.7038 6.50213
189 2 11.7038 11.7038 11.7038
190 2 1.30043 3.90128 1.30043
191 2 1.30043 3.90128 6.50213
192 2 1.30043 3.90128 11.7038
193 2 1.30043 9.10298 1.30043
194 2 1.30043 9.10298 6.50213
195 2 1.30043 9.10298 11.7038
196 2 1.30043 14.3047 1.30043
197 2 1.30043 14.3047 6.50213
198 2 1.30043 14.3047 11.7038
199 2 6.50213 3.90128 1.30043
200 2 6.50213 3.90128 6.50213
201 2 6.50213 3.90128 11.7038
202 2 6.50213 9.10298 1.30043
203 2 6.50213 9.10298 6.50213
204 2 6.50213 9.10298 11.7038
205 2 6.50213 14.3047 1.30043
206 2 6.50213 14.3047 6.50213
207 2 6.50213 14.3047 11.7038
208 2 11.7038 3.90128 1.30043
209 2 11.7038 3.90128 6.50213
210 2 11.7038 3.90128 11.7038
211 2 11.7038 9.10298 1.30043
212 2 11.7038 9.10298 6.50213
213 2 11.7038 9.10298 11.7038
214 2 11.7038 14.3047 1.30043
215 2 11.7038 14.3047 6.50213
216 2 11.7038 14.3047 11.7038
217 2 3.90128 3.90128 1.30043
218 2 3.90128 3.90128 6.50213
219 2 3.90128 3.90128 11.7038
220 2 3.90128 9.10298 1.30043
221 2 3.90128 9.10298 6.50213
222 2 3.90128 9.10298 11.7038
223 2 3.90128 14.3047 1.30043
224 2 3.90128 14.3047 6.50213
225 2 3.90128 14.3047 11.7038
226 2 9.10298 3.90128 1.30043
227 2 9.10298 3.90128 6.50213
228 2 9.10298 3.90128 11.7038
229 2 9.10298 9.10298 1.30043
230 2 9.10298 9.10298 6.50213
231 2 9.10298 9.10298 11.7038
232 2 9.10298 14.3047 1.30043
233 2 9.10298 14.3047 6.50213
234 2 9.10298 14.3047 11.7038
235 2 14.3047 3.90128 1.30043
236 2 14.3047 3.90128 6.50213
237 2 14.3047 3.90128 11.7038
238 2 14.3047 9.10298 1.30043
239 2 14.3047 9.10298 6.50213
240 2 14.3047 9.10298 11.7038
241 2 14.3047 14.3047 1.30043
242 2 14.3047 14.3047 6.50213
243 2 14.3047 14.3047 11.7038
244 2 3.90128 1.30043 1.30043
245 2 3.90128 1.30043 6.50213
246 2 3.90128 1.30043 11.7038
247 2 3.90128 6.50213 1.30043
248 2 3.90128 6.50213 6.50213
249 2 3.90128 6.50213 11.7038
250 2 3.90128 11.7038 1.30043
251 2 3.90128 11.7038 6.50213
252 2 3.90128 11.7038 11.7038
253 2 9.10298 1.30043 1.30043
254 2 9.10298 1.30043 6.50213
255 2 9.10298 1.30043 11.7038
256 2 9.10298 6.50213 1.30043
257 2 9.10298 6.50213 6.50213
258 2 9.10298 6.50213 11.7038
259 2 9.10298 11.7038 1.30043
260 2 9.10298 11.7038 6.50213
261 2 9.10298 11.7038 11.7038
262 2 14.3047 1.30043 1.30043
263 2 14.3047 1.30043 6.50213
264 2 14.3047 1.30043 11.7038
265 2 14.3047 6.50213 1.30043
266 2 14.3047 6.50213 6.50213
267 2 14.3047 6.50213 11.7038
268 2 14.3047 11.7038 1.30043
269 2 14.3047 11.7038 6.50213
270 2 14.3047 11.7038 11.7038
271 2 3.90128 1.30043 3.90128
272 2 3.90128 1.30043 9.10298
273 2 3.90128 1.30043 14.3047
274 2 3.90128 6.50213 3.90128
275 2 3.90128 6.50213 9.10298
276 2 3.90128 6.50213 14.3047
277 2 3.90128 11.7038 3.90128
278 2 3.90128 11.7038 9.10298
279 2 3.90128 11.7038 14.3047
280 2 9.10298 1.30043 3.90128
281 2 9.10298 1.30043 9.10298
282 2 9.10298 1.30043 14.3047
283 2 9.10298 6.50213 3.90128
284 2 9.10298 6.50213 9.10298
285 2 9.10298 6.50213 14.3047
286 2 9.10298 11.7038 3.90128
287 2 9.10298 11.7038 9.10298
288 2 9.10298 11.7038 14.3047
289 2 14.3047 1.30043 3.90128
290 2 14.3047 1.30043 9.10298
291 2 14.3047 1.30043 14.3047
292 2 14.3047 6.50213 3.90128
293 2 14.3047 6.50213 9.10298
294 2 14.3047 6.50213 14.3047
295 2 14.3047 11.7038 3.90128
296 2 14.3047 11.7038 9.10298
297 2 14.3047 11.7038 14.3047
298 2 3.90128 3.90128 3.90128
299 2 3.90128 3.90128 9.10298
300 2 3.90128 3.90128 14.3047
301 2 3.90128 9.10298 3.90128
302 2 3.90128 9.10298 9.10298
303 2 3.90128 9.10298 14.3047
304 2 3.90128 14.3047 3.90128
305 2 3.90128 14.3047 9.10298
306 2 3.90128 14.3047 14.3047
307 2 9.10298 3.90128 3.90128
308 2 9.10298 3.90128 9.10298
309 2 9.10298 3.90128 14.3047
310 2 9.10298 9.10298 3.90128
311 2 9.10298 9.10298 9.10298
312 2 9.10298 9.10298 14.3047
313 2 9.10298 14.3047 3.90128
314 2 9.10298 14.3047 9.10298
315 2 9.10298 14.3047 14.3047
316 2 14.3047 3.90128 3.90128
317 2 14.3047 3.90128 9.10298
318 2 14.3047 3.90128 14.3047
319 2 14.3047 9.10298 3.90128
320 2 14.3047 9.10298 9.10298
321 2 14.3047 9.10298 14.3047
322 2 14.3047 14.3047 3.90128
323 2 14.3047 14.3047 9.10298
324 2 14.3047 14.3047 14.3047
